 Q-Chem 6.1 (devel), Q-Chem, Inc., Pleasanton, CA (2022)
 Q-Chem 6.1.0 for Intel X86 EM64T Linux

User input:
--------------------------------------------------------------
$comment
  Plain old SCF on the ground state.
$end

$molecule
  0   1
  Fe
  C   1   rFeC_Ax
  C   1   rFeC_Eq  2  a_CAx_CEq
  C   1   rFeC_Eq  2  a_CAx_CEq  3 d_C
  C   1   rFeC_Eq  2  a_CAx_CEq  3 d_nC
  O   1   rFeO_Ax  3  a_CAx_CEq  2 d_0
  O   1   rFeO_Eq  2  a_CAx_OEq  3 d_0
  O   1   rFeO_Eq  2  a_CAx_OEq  4 d_0
  O   1   rFeO_Eq  2  a_CAx_OEq  5 d_0

  rFeC_Ax   =    1.78700
  rFeC_Eq   =    1.84962
  rFeO_Ax   =    2.93616
  rFeO_Eq   =    2.99880
  a_CAx_CEq =   92.43000
  a_CAx_OEq =   91.88960
  d_0       =    0.00000
  d_nC      = -120.00000
  d_C       =  120.00000
$end

$rem
  METHOD               HF
  UNRESTRICTED         FALSE
  BASIS                GEN
  PURECART             11
  SYMMETRY             FALSE
  SYM_IGNORE           TRUE
  GEN_SCFMAN           TRUE
  SCF_ALGORITHM        DIIS_GDM
  SCF_CONVERGENCE      8
  MAX_SCF_CYCLES       200
  INTERNAL_STABILITY   TRUE
  INTERNAL_STABILITY_ITER 10
  INTERNAL_STABILITY_DAVIDSON_ITER 250
  MEM_TOTAL            32000
  MEM_STATIC           1000
  THRESH               14
$end

$basis
C    0
cc-pVDZ
****
O    0
cc-pVDZ
****
Fe    0
cc-pVDZ
****
$end

--------------------------------------------------------------

   21   -1713.2338816854      7.94e-09     00000 Convergence criterion met
 Total energy in the final basis set =    -1713.2338816854
 Total job time:  1905.81s(wall), 32433.71s(cpu)
        *  Thank you very much for using Q-Chem.  Have a nice day.  *

User input: 2 of 2

                  Welcome to Q-Chem
     A Quantum Leap Into The Future Of Chemistry

 Q-Chem 6.1 (devel), Q-Chem, Inc., Pleasanton, CA (2022)

 E. Epifanovsky,  A. T. B. Gilbert,  Xintian Feng,  Joonho Lee,  Yuezhi Mao,
 N. Mardirossian,  P. Pokhilko,  A. White,  M. Wormit,  M. P. Coons,
 A. L. Dempwolff,  Zhengting Gan,  D. Hait,  P. R. Horn,  L. D. Jacobson,
 I. Kaliman,  J. Kussmann,  A. W. Lange,  Ka Un Lao,  D. S. Levine,  Jie Liu,
 S. C. McKenzie,  A. F. Morrison,  K. D. Nanda,  F. Plasser,  D. R. Rehn,
 M. L. Vidal,  Zhi-Qiang You,  Ying Zhu,  B. Alam,  B. Albrecht,
 A. Aldossary,  E. Alguire,  J. H. Andersen,  V. Athavale,  D. Barton,
 K. Begam,  A. Behn,  N. Bellonzi,  Y. A. Bernard,  E. J. Berquist,
 H. Burton,  A. Carreras,  K. Carter-Fenk,  Mathew Chow,  Romit Chakraborty,
 Chandrima Chakravarty,  Junhan Chen,  A. D. Chien,  K. D. Closser,
 V. Cofer-Shabica,  L. Cunha,  S. Dasgupta,  Jia Deng,  M. de Wergifosse,
 M. Diedenhofen,  Hainam Do,  S. Ehlert,  Po-Tung Fang,  S. Fatehi,
 Qingguo Feng,  T. Friedhoff,  Thomas Froitzheim,  B. Ganoe,  J. Gayvert,
 Qinghui Ge,  G. Gidofalvi,  M. Gimferrer,  M. Goldey,  Montgomery Gray,
 J. Gomes,  C. Gonzalez-Espinoza,  S. Gulania,  A. Gunina,  J. A. Gyamfi,
 M. W. D. Hanson-Heine,  P. H. P. Harbach,  A. W. Hauser,  M. F. Herbst,
 M. Hernandez Vera,  M. Hodecker,  Z. C. Holden,  S. Houck,  Xunkun Huang,
 Kerwin Hui,  B. C. Huynh,  K. Ikeda,  M. Ivanov,  Hyunjun Ji,  Zuxin Jin,
 Hanjie Jiang,  Subrata Jana,  B. Kaduk,  S. Kaehler,  R. Kang,
 K. Khistyaev,  Jaehoon Kim,  Yongbin Kim,  P. Klunzinger,  Z. Koczor-Benda,
 Joong Hoon Koh,  D. Kosenkov,  Saikiran Kotaru,  L. Koulias,  T. Kowalczyk,
 C. M. Krauter,  K. Kue,  A. Kunitsa,  T. Kus,  A. Landau,  K. V. Lawler,
 D. Lefrancois,  S. Lehtola,  Rain Li,  Shaozhi Li,  Yi-Pei Li,
 Jiashu Liang,  M. Liebenthal,  Hung-Hsuan Lin,  You-Sheng Lin,  Fenglai Liu,
 Kuan-Yu Liu,  Xiao Liu,  M. Loipersberger,  A. Luenser,  C. Malbon,
 A. Manjanath,  P. Manohar,  E. Mansoor,  S. F. Manzer,  Shan-Ping Mao,
 A. V. Marenich,  T. Markovich,  S. Mason,  F. Matz,  S. A. Maurer,
 P. F. McLaughlin,  M. F. S. J. Menger,  J.-M. Mewes,  S. A. Mewes,
 P. Morgante,  Mohammad Mostafanejad,  J. W. Mullinax,  K. J. Oosterbaan,
 G. Paran,  V. Parravicini,  Alexander C. Paul,  Suranjan K. Paul,
 F. Pavosevic,  Zheng Pei,  S. Prager,  E. I. Proynov,  E. Ramos,  B. Rana,
 A. E. Rask,  A. Rettig,  R. M. Richard,  F. Rob,  E. Rossomme,  T. Scheele,
 M. Scheurer,  M. Schneider,  P. E. Schneider,  Tim K. Schramm,  N. Sergueev,
 S. M. Sharada,  M. Sharma,  Hengyuan Shen,  W. Skomorowski,  D. W. Small,
 C. J. Stein,  Alistair J. Sterling,  Yingli Su,  Yu-Chuan Su,
 E. J. Sundstrom,  J. Talbot,  Zhen Tao,  J. Thirman,  Hung-Yi Tsai,
 T. Tsuchimochi,  N. M. Tubman,  C. Utku,  S. P. Veccham,  O. Vydrov,
 J. Wenzel,  Jonathan Wong,  J. Witte,  A. Yamada,  Chou-Hsun Yang,  Kun Yao,
 S. Yeganeh,  S. R. Yost,  A. Zech,  F. Zeller,  Igor Ying Zhang,
 Xing Zhang,  Yu Zhang,  D. Zuev,  A. Aspuru-Guzik,  A. T. Bell,
 N. A. Besley,  K. B. Bravaya,  B. R. Brooks,  D. Casanova,  Jeng-Da Chai,
 Hsing-Ta Chen,  S. Coriani,  C. J. Cramer,  A. E. DePrince, III,
 R. A. DiStasio Jr.,  A. Dreuw,  B. D. Dunietz,  T. R. Furlani,
 W. A. Goddard III,  S. Grimme,  S. Hammes-Schiffer,  T. Head-Gordon,
 W. J. Hehre,  Chao-Ping Hsu,  T.-C. Jagau,  Yousung Jung,  A. Klamt,
 Jing Kong,  D. S. Lambrecht,  Xiangyuan Li,  WanZhen Liang,  N. J. Mayhall,
 C. W. McCurdy,  J. B. Neaton,  T. Neudecker,  C. Ochsenfeld,
 J. A. Parkhill,  R. Peverati,  V. A. Rassolov,  Haisheng Ren,  Yihan Shao,
 L. V. Slipchenko,  R. P. Steele,  J. E. Subotnik,  A. J. W. Thom,
 A. Tkatchenko,  D. G. Truhlar,  T. Van Voorhis,  Fan Wang,
 T. A. Wesolowski,  K. B. Whaley,  H. L. Woodcock III,  P. M. Zimmerman,
 S. Faraji,  P. M. W. Gill,  M. Head-Gordon,  J. M. Herbert,  A. I. Krylov

 Contributors to earlier versions of Q-Chem not listed above:
 R. D. Adamson,  B. Austin,  R. Baer,  J. Baker,  G. J. O. Beran,
 K. Brandhorst,  S. T. Brown,  E. F. C. Byrd,  Arup K. Chakraborty,
 G. K. L. Chan,  Chun-Min Chang,  Yunqing Chen,  C.-L. Cheng,
 Siu Hung Chien,  D. M. Chipman,  D. L. Crittenden,  H. Dachsel,
 R. J. Doerksen,  A. D. Dutoi,  R. G. Edgar,  J. Fosso-Tande,
 L. Fusti-Molnar,  D. Ghosh,  A. Ghysels,  A. Golubeva-Zadorozhnaya,
 J. Gonthier,  M. S. Gordon,  S. R. Gwaltney,  G. Hawkins,  J. E. Herr,
 A. Heyden,  S. Hirata,  E. G. Hohenstein,  G. Kedziora,  F. J. Keil,
 C. Kelley,  Jihan Kim,  R. A. King,  R. Z. Khaliullin,  P. P. Korambath,
 W. Kurlancheek,  A. Laurent,  A. M. Lee,  M. S. Lee,  S. V. Levchenko,
 Ching Yeh Lin,  D. Liotard,  E. Livshits,  R. C. Lochan,  I. Lotan,
 L. A. Martinez-Martinez,  P. E. Maslen,  N. Nair,  D. P. O'Neill,
 D. Neuhauser,  E. Neuscamman,  C. M. Oana,  R. Olivares-Amaya,  R. Olson,
 T. M. Perrine,  B. Peters,  P. A. Pieniazek,  A. Prociuk,  Y. M. Rhee,
 J. Ritchie,  M. A. Rohrdanz,  E. Rosta,  N. J. Russ,  H. F. Schaefer III,
 M. W. Schmidt,  N. E. Schultz,  S. Sharma,  N. Shenvi,  C. D. Sherrill,
 A. C. Simmonett,  A. Sodt,  T. Stein,  D. Stuck,  K. S. Thanthiriwatte,
 V. Vanovschi,  L. Vogt,  Tao Wang,  A. Warshel,  M. A. Watson,
 C. F. Williams,  Q. Wu,  X. Xu,  Jun Yang,  W. Zhang,  Yan Zhao

   Please cite Q-Chem as follows:
  "Software for the frontiers of quantum chemistry:
   An overview of developments in the Q-Chem 5 package"
   J. Chem. Phys. 155, 084801 (2021)
   https://doi.org/10.1063/5.0055522 (open access)

 Q-Chem 6.1.0 for Intel X86 EM64T Linux

 Parts of Q-Chem use Armadillo 9.900.5 (Nocturnal Misbehaviour).
 http://arma.sourceforge.net/

 Q-Chem begins on Tue Jan 16 07:32:48 2024

 Host: n0088.mhg0
0

     Scratch files written to /local/scratch/users/juanes/O-CCSD_FeCO4-C3v-S0.in20240116070048//
 Processing $rem in /global/home/groups-sw/mhg/qchem_public/qchem_6101/config/preferences:
 Processing $rem in /global/home/users/juanes/.qchemrc:
 Core orbitals will be frozen

 Checking the input file for inconsistencies... 	...done.

--------------------------------------------------------------
User input:
--------------------------------------------------------------

$comment
  Optimization of the CCSD structure.
$end

$molecule
  0   1
  Fe
  C   1   rFeC_Ax
  C   1   rFeC_Eq  2  a_CAx_CEq
  C   1   rFeC_Eq  2  a_CAx_CEq  3 d_C
  C   1   rFeC_Eq  2  a_CAx_CEq  3 d_nC
  O   1   rFeO_Ax  3  a_CAx_CEq  2 d_0
  O   1   rFeO_Eq  2  a_CAx_OEq  3 d_0
  O   1   rFeO_Eq  2  a_CAx_OEq  4 d_0
  O   1   rFeO_Eq  2  a_CAx_OEq  5 d_0

  rFeC_Ax   =    1.78700
  rFeC_Eq   =    1.84962
  rFeO_Ax   =    2.93616
  rFeO_Eq   =    2.99880
  a_CAx_CEq =   92.43000
  a_CAx_OEq =   91.88960
  d_0       =    0.00000
  d_nC      = -120.00000
  d_C       =  120.00000
$end

$rem
  JOBTYPE              OPT
  METHOD               CCSD
  UNRESTRICTED         FALSE
  BASIS                GEN
  PURECART             11
  SYMMETRY             FALSE
  SYM_IGNORE           TRUE
  GEN_SCFMAN           TRUE
  SCF_GUESS            READ
  SCF_ALGORITHM        GDM
  SCF_CONVERGENCE      7
  MAX_SCF_CYCLES       200
  CC_BACKEND           XM
  CC_MAX_ITER          200
  MEM_TOTAL            32000
  MEM_STATIC           1000
  THRESH               14
$end

$opt
  FIXED
  1 XYZ
  ENDFIXED
$end

$basis
C    0
cc-pVDZ
****
O    0
cc-pVDZ
****
Fe    0
cc-pVDZ
****
$end

--------------------------------------------------------------

    1   -1713.2338816854      4.71e-09  Convergence criterion met
 Total energy in the final basis set =    -1713.2338816854
 CCSD total energy          = -1714.85313171
   13   -1713.2337654961      7.02e-08  Convergence criterion met
 Total energy in the final basis set =    -1713.2337654961
 CCSD total energy          = -1714.85313149

             Standard Nuclear Orientation (Angstroms)
    I     Atom           X                Y                Z
 ----------------------------------------------------------------
    1      Fe      0.0000000000     0.0000003549    -0.0000075281
    2      C       0.0000000000    -0.0000013675     1.7868059677
    3      C       1.8479578413     0.0000011791    -0.0784308520
    4      C      -0.9239795783    -1.6003783955    -0.0784300327
    5      C      -0.9239782630     1.6003784756    -0.0784316715
    6      O       0.0000000000     0.0000007225     2.9363931414
    7      O       2.9970755828    -0.0000003012    -0.0988830419
    8      O      -1.4985378123    -2.5955439270    -0.0988833188
    9      O      -1.4985377706     2.5955432567    -0.0988827648
 ----------------------------------------------------------------

   13   -1713.2338338788      4.88e-08  Convergence criterion met
 Total energy in the final basis set =    -1713.2338338788
 CCSD total energy          = -1714.85313215
 Final energy is   -1714.85313214974
 **  OPTIMIZATION CONVERGED  **

                    Orbital Energies (a.u.)
 --------------------------------------------------------------

 Alpha MOs
 -- Occupied --
******** -31.9224 -27.4085 -27.3987 -27.3987 -20.6713 -20.6647 -20.6647
-20.6647 -11.3935 -11.3909 -11.3909 -11.3909  -4.1115  -2.7004  -2.6892
 -2.6892  -1.5153  -1.5084  -1.5083  -1.5083  -0.8358  -0.8055  -0.8055
 -0.8040  -0.7027  -0.6565  -0.6565  -0.6431  -0.6431  -0.6371  -0.6341
 -0.6309  -0.6309  -0.6185  -0.6185  -0.5997  -0.4879  -0.4879  -0.3285
 -0.3285

          Ground-State Mulliken Net Atomic Charges

     Atom                 Charge (a.u.)
  ----------------------------------------
      1 Fe                   -0.252865
      2 C                     0.122704
      3 C                     0.084853
      4 C                     0.084853
      5 C                     0.084853
      6 O                    -0.042193
      7 O                    -0.027401
      8 O                    -0.027402
      9 O                    -0.027402
  ----------------------------------------
  Sum of atomic charges =     0.000000

                    Cartesian Multipole Moments
 -----------------------------------------------------------------
    Charge (ESU x 10^10)
                -0.0000
    Dipole Moment (Debye)
         X       0.0000      Y      -0.0000      Z      -1.0330
       Tot       1.0330
    Quadrupole Moments (Debye-Ang)
        XX     -61.4724     XY       0.0000     YY     -61.4724
        XZ      -0.0000     YZ      -0.0000     ZZ     -56.6431

 Total job time:  4300.77s(wall), 67873.45s(cpu)
        *  Thank you very much for using Q-Chem.  Have a nice day.  *
